LAMMPS data file from itp file - (Written by Dongsheng Chen)
19 atoms
19 bonds
33 angles
46 dihedrals

11 atom types
19 bond types
33 angle types
46 dihedral types

-10   10 xlo xhi
-10   10 ylo yhi
-10   10 zlo zhi

Masses

1	12.011	#	CR
2	14.007	#	NA
3	12.011	#	CW
4	1.008	#	HR
5	1.008	#	HW
6	12.011	#	CM
7	1.008	#	HM
8	12.011	#	CA
9	1.008	#	HA
10	12.011	#	CT
11	1.008	#	HT

Pair Coeffs

1	0.07	3.55	#	CR
2	0.17	3.25	#	NA
3	0.07	3.55	#	CW
4	0.03	2.42	#	HR
5	0.03	2.42	#	HW
6	0.066	3.5	#	CM
7	0.03	2.5	#	HM
8	0.066	3.5	#	CA
9	0.03	2.5	#	HA
10	0.066	3.5	#	CT
11	0.03	2.5	#	HT

Bond Coeffs

1	477	1.315	#	C01-N00
2	477	1.315	#	C01-N02
3	340	1.08	#	C05-H0B
4	340	1.08	#	C05-H0C
5	340	1.08	#	C05-H0D
6	337	1.465	#	C05-N00
7	367	1.069	#	C01-H07
8	427	1.378	#	C04-N02
9	427	1.378	#	C03-N00
10	520	1.336	#	C04-C03
11	367	1.068	#	C04-H09
12	367	1.068	#	C03-H08
13	337	1.476	#	N02-C06
14	340	1.08	#	C06-H0F
15	340	1.08	#	C06-H0E
16	268	1.521	#	C06-C0N
17	340	1.084	#	C0N-H0O
18	340	1.084	#	C0N-H0P
19	340	1.084	#	C0N-H0Q

Angle Coeffs

1	33	109.8	#	H0B-C05-H0C
2	33	109.8	#	H0B-C05-H0D
3	33	109.8	#	H0C-C05-H0D
4	37.5	109.2	#	H0B-C05-N00
5	37.5	109.2	#	H0C-C05-N00
6	37.5	109.2	#	H0D-C05-N00
7	70	126.4	#	C05-N00-C01
8	70	125.6	#	C05-N00-C03
9	35	125.1	#	N00-C01-H07
10	35	125.1	#	N02-C01-H07
11	70	109.8	#	N00-C01-N02
12	70	107.9	#	C01-N00-C03
13	70	107.9	#	C01-N02-C04
14	70	107.1	#	N00-C03-C04
15	70	107.1	#	N02-C04-C03
16	35	122	#	N00-C03-H08
17	35	122	#	N02-C04-H09
18	35	130.9	#	H08-C03-C04
19	35	130.9	#	H09-C04-C03
20	70	125.3	#	C04-N02-C06
21	70	126.8	#	C01-N02-C06
22	37.5	107.5	#	N02-C06-H0F
23	37.5	107.5	#	N02-C06-H0E
24	37.5	111.2	#	H0E-C06-C0N
25	37.5	111.2	#	H0F-C06-C0N
26	33	108.9	#	H0F-C06-H0E
27	37.5	110.7	#	C06-C0N-H0O
28	37.5	110.7	#	C06-C0N-H0P
29	37.5	110.7	#	C06-C0N-H0Q
30	33	107.9	#	H0O-C0N-H0P
31	33	107.9	#	H0O-C0N-H0Q
32	33	107.9	#	H0P-C0N-H0Q
33	58.35	112.6	#	N02-C06-C0N

Dihedral Coeffs

1	0	0	0	0	#	H0B-C05-N00-C01
2	0	0	0	0	#	H0C-C05-N00-C01
3	0	0	0	0	#	H0D-C05-N00-C01
4	0	0	0.124	0	#	H0B-C05-N00-C03
5	0	0	0.124	0	#	H0C-C05-N00-C03
6	0	0	0.124	0	#	H0D-C05-N00-C03
7	0	4.651	0	0	#	C05-N00-C01-H07
8	0	4.651	0	0	#	C05-N00-C01-N02
9	0	3	0	0	#	C05-N00-C03-C04
10	0	3	0	0	#	C05-N00-C03-H08
11	0	4.651	0	0	#	N00-C01-N02-C06
12	0	10.75	0	0	#	N00-C03-C04-H09
13	0	10.75	0	0	#	N02-C04-C03-H08
14	0	10.75	0	0	#	N00-C03-C04-N02
15	0	4.651	0	0	#	H07-C01-N00-C03
16	0	4.651	0	0	#	H07-C01-N02-C04
17	0	3	0	0	#	C01-N00-C03-H08
18	0	3	0	0	#	C01-N02-C04-H09
19	0	3	0	0	#	C01-N00-C03-C04
20	0	3	0	0	#	C01-N02-C04-C03
21	0	4.651	0	0	#	H07-C01-N02-C06
22	0	3	0	0	#	H09-C04-N02-C06
23	0	3	0	0	#	C03-C04-N02-C06
24	0	0	0	0	#	C01-N02-C06-H0F
25	0	0	0	0	#	C01-N02-C06-H0E
26	0	0	0.318	0	#	H0F-C06-C0N-H0O
27	0	0	0.318	0	#	H0F-C06-C0N-H0P
28	0	0	0.318	0	#	H0F-C06-C0N-H0Q
29	0	0	0.318	0	#	H0E-C06-C0N-H0O
30	0	0	0.318	0	#	H0E-C06-C0N-H0P
31	0	0	0.318	0	#	H0E-C06-C0N-H0Q
32	0	10.75	0	0	#	H09-C04-C03-H08
33	0	4.651	0	0	#	C03-N00-C01-N02
34	0	4.651	0	0	#	C04-N02-C01-N00
35	-2	-0.275	-1.65	0	#	C01-N02-C06-C0N
36	-2.7	-5.65	0.355	0	#	C04-N02-C06-H0F
37	-4.355	-4.575	-1.375	0	#	C04-N02-C06-C0N
38	-2.7	-5.65	0.355	0	#	C04-N02-C06-H0E
39	0	0	0	0	#	N02-C06-C0N-H0O
40	0	0	0	0	#	N02-C06-C0N-H0P
41	0	0	0	0	#	N02-C06-C0N-H0Q
42	0	2	0	0	#	C05-N00-C01-C03
43	0	2	0	0	#	C06-N02-C01-C04
44	0	2.20	0	0	#	H09-C04-N02-C03
45	0	2.20	0	0	#	H08-C03-N00-C04
46	0	2.20	0	0	#	H07-C01-N00-N02

Atoms

1	1	1	-0.09	0.890	0.908	-1.026	#	C01
2	1	3	-0.24	2.944	1.764	-0.647	#	C04
3	1	3	-0.24	2.070	2.771	-0.542	#	C03
4	1	4	0.21	0.088	0.234	-1.240	#	H07
5	1	5	0.27	4.006	1.818	-0.527	#	H09
6	1	5	0.27	2.290	3.794	-0.321	#	H08
7	1	6	-0.35	-0.525	2.920	-0.782	#	C05
8	1	7	0.18	-1.312	2.262	-0.475	#	H0B
9	1	7	0.18	-0.459	3.741	-0.100	#	H0C
10	1	7	0.18	-0.733	3.288	-1.765	#	H0D
11	1	2	0.22	0.749	2.187	-0.792	#	N00
12	1	8	-0.17	2.688	-0.782	-1.168	#	C06
13	1	9	0.18	2.921	-0.919	-2.203	#	H0F
14	1	10	-0.24	3.966	-0.962	-0.327	#	C0N
15	1	11	0.08	4.356	-1.947	-0.478	#	H0O
16	1	11	0.08	4.696	-0.239	-0.628	#	H0P
17	1	11	0.08	3.734	-0.825	0.709	#	H0Q
18	1	2	0.22	2.152	0.571	-0.961	#	N02
19	1	9	0.18	1.959	-1.504	-0.867	#	H0E

Bonds

1	1	1	11
2	1	1	18
3	2	7	8
4	2	7	9
5	2	7	10
6	3	7	11
7	4	1	4
8	5	2	18
9	5	3	11
10	6	2	3
11	7	2	5
12	7	3	6
13	8	18	12
14	9	12	13
15	9	12	19
16	10	12	14
17	11	14	15
18	11	14	16
19	11	14	17

Angles

1	1	8	7	9
2	1	8	7	10
3	1	9	7	10
4	2	8	7	11
5	2	9	7	11
6	2	10	7	11
7	3	7	11	1
8	4	7	11	3
9	5	11	1	4
10	5	18	1	4
11	6	11	1	18
12	7	1	11	3
13	7	1	18	2
14	8	11	3	2
15	8	18	2	3
16	9	11	3	6
17	9	18	2	5
18	10	6	3	2
19	10	5	2	3
20	11	2	18	12
21	12	1	18	12
22	13	18	12	13
23	13	18	12	19
24	14	19	12	14
25	14	13	12	14
26	15	13	12	19
27	16	12	14	15
28	16	12	14	16
29	16	12	14	17
30	17	15	14	16
31	17	15	14	17
32	17	16	14	17
33	18	18	12	14

Dihedrals

1	1	8	7	11	1
2	1	9	7	11	1
3	1	10	7	11	1
4	2	8	7	11	3
5	2	9	7	11	3
6	2	10	7	11	3
7	3	7	11	1	4
8	4	7	11	1	18
9	5	7	11	3	2
10	6	7	11	3	6
11	7	11	1	18	12
12	8	11	3	2	5
13	8	18	2	3	6
14	9	11	3	2	18
15	10	4	1	11	3
16	10	4	1	18	2
17	11	1	11	3	6
18	11	1	18	2	5
19	12	1	11	3	2
20	12	1	18	2	3
21	13	4	1	18	12
22	14	5	2	18	12
23	15	3	2	18	12
24	16	1	18	12	13
25	16	1	18	12	19
26	17	13	12	14	15
27	17	13	12	14	16
28	17	13	12	14	17
29	17	19	12	14	15
30	17	19	12	14	16
31	17	19	12	14	17
32	18	5	2	3	6
33	19	3	11	1	18
34	19	2	18	1	11
35	20	1	18	12	14
36	21	2	18	12	13
37	22	2	18	12	14
38	21	2	18	12	19
39	23	18	12	14	15
40	23	18	12	14	16
41	23	18	12	14	17
42	24	7	11	1	3
43	25	12	18	1	2
44	26	5	2	18	3
45	26	6	3	11	2
46	27	4	1	11	18

